# t (s)	mx ()	my ()	mz ()	m.region21x ()	m.region21y ()	m.region21z ()	m.region22x ()	m.region22y ()	m.region22z ()	m.region23x ()	m.region23y ()	m.region23z ()	B_extx (T)	B_exty (T)	B_extz (T)	B_eff.region6x (T)	B_eff.region6y (T)	B_eff.region6z (T)	B_eff.region9x (T)	B_eff.region9y (T)	B_eff.region9z (T)	step_x (No unit)	step_y (No unit)	points_TOP_wire (No unit)
0	0	-0.2719719	0	-0.70710677	0.70710677	0	0.70710707	-0.70710707	0	-0.7071071	-0.7071071	0	0	0	0	0.014360984	-0.039698124	0.00565162	NaN	NaN	NaN	0	1e-07	276
0	0	-0.2719719	0	-0.70710677	0.70710677	0	0.70710707	-0.70710707	0	-0.7071071	-0.7071071	0	0	0	0	-0.00019643661	-0.03230185	0.005675105	NaN	NaN	NaN	7.789855e-09	1e-07	276
0	0	-0.2719719	0	-0.70710677	0.70710677	0	0.70710707	-0.70710707	0	-0.7071071	-0.7071071	0	0	0	0	-0.014667205	-0.02558342	0.005651336	NaN	NaN	NaN	1.557971e-08	1e-07	276
0	0	-0.2719719	0	-0.70710677	0.7071068	0	0.70710707	-0.70710707	0	-0.7071071	-0.7071071	0	0	0	0	-0.02863814	-0.019942775	0.005582845	NaN	NaN	NaN	2.3369566e-08	1e-07	276
0	0	-0.27197188	0	-0.70710677	0.70710677	0	0.70710707	-0.70710707	0	-0.7071071	-0.7071071	0	0	0	0	-0.041746836	-0.015537071	0.0054736566	NaN	NaN	NaN	3.115942e-08	1e-07	276
0	0	-0.27197188	0	-0.7071068	0.70710677	0	0.707107	-0.70710707	0	-0.7071071	-0.7071071	0	0	0	0	-0.053736497	-0.012339052	0.0053289556	NaN	NaN	NaN	3.8949274e-08	1e-07	276
0	0	-0.27197188	0	-0.70710677	0.70710677	0	0.70710707	-0.70710707	0	-0.7071071	-0.7071071	0	0	0	0	-0.06446509	-0.010216375	0.005154607	NaN	NaN	NaN	4.673913e-08	1e-07	276
0	0	-0.27197188	0	-0.70710677	0.70710677	0	0.70710707	-0.70710707	0	-0.7071071	-0.7071071	0	0	0	0	-0.07388764	-0.00899258	0.004956702	NaN	NaN	NaN	5.4528986e-08	1e-07	276
0	0	-0.27197188	0	-0.7071068	0.70710677	0	0.70710707	-0.707107	0	-0.7071071	-0.7071071	0	0	0	0	-0.082028545	-0.008484022	0.0047411458	NaN	NaN	NaN	6.231884e-08	1e-07	276
0	0	-0.27197188	0	-0.7071068	0.70710677	0	0.70710707	-0.70710707	0	-0.7071071	-0.7071071	0	0	0	0	-0.08895472	-0.008521829	0.0045133936	NaN	NaN	NaN	7.01087e-08	1e-07	276
0	0	-0.2719719	0	-0.7071068	0.7071068	0	0.70710707	-0.70710707	0	-0.7071071	-0.7071071	0	0	0	0	-0.09475652	-0.008958441	0.0042782645	NaN	NaN	NaN	7.789855e-08	1e-07	276
0	0	-0.2719719	0	-0.7071068	0.70710677	0	0.707107	-0.70710707	0	-0.7071071	-0.7071071	0	0	0	0	-0.09953593	-0.009669462	0.0040398766	NaN	NaN	NaN	8.5688406e-08	1e-07	276
0	0	-0.27197188	0	-0.70710677	0.7071068	0	0.707107	-0.70710707	0	-0.7071071	-0.7071071	0	0	0	0	-0.1033983	-0.010552474	0.0038016401	NaN	NaN	NaN	9.347826e-08	1e-07	276
0	0	-0.27197188	0	-0.70710677	0.70710677	0	0.707107	-0.70710707	0	-0.7071071	-0.7071071	0	0	0	0	-0.10644813	-0.011525161	0.0035663114	NaN	NaN	NaN	1.01268114e-07	1e-07	276
0	0	-0.27197188	0	-0.7071068	0.7071068	0	0.70710707	-0.70710707	0	-0.7071071	-0.7071071	0	0	0	0	-0.108785935	-0.012522905	0.0033360312	NaN	NaN	NaN	1.0905797e-07	1e-07	276
0	0	-0.27197188	0	-0.7071068	0.7071068	0	0.70710707	-0.707107	0	-0.7071071	-0.7071071	0	0	0	0	-0.110506855	-0.013496655	0.0031124284	NaN	NaN	NaN	1.1684783e-07	1e-07	276
0	0	-0.27197188	0	-0.70710677	0.7071068	0	0.70710707	-0.70710707	0	-0.7071071	-0.7071071	0	0	0	0	-0.11169963	-0.014410699	0.002896667	NaN	NaN	NaN	1.2463768e-07	1e-07	276
0	0	-0.2719719	0	-0.7071068	0.70710677	0	0.70710707	-0.70710707	0	-0.7071071	-0.7071071	0	0	0	0	-0.11244634	-0.015240707	0.0026895374	NaN	NaN	NaN	1.3242753e-07	1e-07	276
0	0	-0.2719719	0	-0.7071068	0.70710677	0	0.70710707	-0.707107	0	-0.7071071	-0.7071071	0	0	0	0	-0.11282176	-0.01597181	0.0024915005	NaN	NaN	NaN	1.402174e-07	1e-07	276
0	0	-0.27197188	0	-0.70710677	0.70710677	0	0.70710707	-0.7071071	0	-0.7071071	-0.7071071	0	0	0	0	-0.1128936	-0.01659685	0.002302765	NaN	NaN	NaN	1.4800725e-07	1e-07	276
0	0	-0.27197188	0	-0.70710677	0.70710677	0	0.70710707	-0.70710707	0	-0.7071071	-0.7071071	0	0	0	0	-0.1127227	-0.017114803	0.0021233275	NaN	NaN	NaN	1.557971e-07	1e-07	276
0	0	-0.27197188	0	-0.70710677	0.7071068	0	0.70710707	-0.70710707	0	-0.7071071	-0.7071071	0	0	0	0	-0.11236324	-0.01752935	0.001953022	NaN	NaN	NaN	1.6358696e-07	1e-07	276
0	0	-0.27197188	0	-0.70710677	0.70710677	0	0.70710707	-0.70710707	0	-0.7071071	-0.7071071	0	0	0	0	-0.11186315	-0.017847626	0.0017915482	NaN	NaN	NaN	1.7137681e-07	1e-07	276
0	0	-0.2719719	0	-0.7071068	0.7071068	0	0.70710707	-0.707107	0	-0.7071071	-0.7071071	0	0	0	0	-0.111264735	-0.018079197	0.0016385117	NaN	NaN	NaN	1.7916666e-07	1e-07	276
0	0	-0.27197188	0	-0.70710677	0.7071068	0	0.707107	-0.70710707	0	-0.7071071	-0.7071071	0	0	0	0	-0.1106049	-0.018235173	0.0014934442	NaN	NaN	NaN	1.8695653e-07	1e-07	276
0	0	-0.2719719	0	-0.7071068	0.70710677	0	0.70710707	-0.70710707	0	-0.7071071	-0.7071071	0	0	0	0	-0.10991602	-0.018327525	0.001355816	NaN	NaN	NaN	1.9474638e-07	1e-07	276
0	0	-0.27197188	0	-0.70710677	0.7071068	0	0.70710707	-0.70710707	0	-0.7071071	-0.7071071	0	0	0	0	-0.109226145	-0.018368566	0.0012250681	NaN	NaN	NaN	2.0253623e-07	1e-07	276
0	0	-0.2719719	0	-0.70710677	0.7071068	0	0.70710707	-0.707107	0	-0.7071071	-0.7071071	0	0	0	0	-0.108559765	-0.018370552	0.001100611	NaN	NaN	NaN	2.1032609e-07	1e-07	276
0	0	-0.27197188	0	-0.70710677	0.7071068	0	0.70710707	-0.70710707	0	-0.7071071	-0.7071071	0	0	0	0	-0.10793819	-0.018345423	0.0009818478	NaN	NaN	NaN	2.1811594e-07	1e-07	276
0	0	-0.2719719	0	-0.7071068	0.7071068	0	0.70710707	-0.70710707	0	-0.7071071	-0.7071071	0	0	0	0	-0.10737996	-0.018304616	0.0008681613	NaN	NaN	NaN	2.259058e-07	1e-07	276
0	0	-0.27197188	0	-0.7071068	0.70710677	0	0.70710707	-0.70710707	0	-0.7071071	-0.7071071	0	0	0	0	-0.10690129	-0.018258996	0.0007589349	NaN	NaN	NaN	2.3369566e-07	1e-07	276
0	0	-0.27197188	0	-0.70710677	0.7071068	0	0.70710707	-0.70710707	0	-0.7071071	-0.7071071	0	0	0	0	-0.10651632	-0.018218813	0.00065354846	NaN	NaN	NaN	2.414855e-07	1e-07	276
0	0	-0.27197188	0	-0.70710677	0.70710677	0	0.70710707	-0.70710707	0	-0.7071071	-0.7071071	0	0	0	0	-0.10623757	-0.01819372	0.0005513837	NaN	NaN	NaN	2.4927536e-07	1e-07	276
0	0	-0.2719719	0	-0.70710677	0.7071068	0	0.707107	-0.70710707	0	-0.7071071	-0.7071071	0	0	0	0	-0.106076114	-0.018192833	0.0004518136	NaN	NaN	NaN	2.570652e-07	1e-07	276
0	0	-0.27197188	0	-0.70710677	0.7071068	0	0.707107	-0.70710707	0	-0.7071071	-0.7071071	0	0	0	0	-0.10604193	-0.018224811	0.00035420462	NaN	NaN	NaN	2.6485506e-07	1e-07	276
0	0	-0.27197188	0	-0.70710677	0.7071068	0	0.70710707	-0.707107	0	-0.7071071	-0.7071071	0	0	0	0	-0.10614373	-0.018297955	0.00025791756	NaN	NaN	NaN	2.7264494e-07	1e-07	276
0	0	-0.27197188	0	-0.70710677	0.70710677	0	0.70710707	-0.70710707	0	-0.7071071	-0.7071071	0	0	0	0	-0.10638962	-0.018420286	0.0001623021	NaN	NaN	NaN	2.804348e-07	1e-07	276
0	0	-0.27197188	0	-0.70710677	0.70710677	0	0.70710707	-0.70710707	0	-0.7071071	-0.7071071	0	0	0	0	-0.106786884	-0.018599704	6.6692264e-05	NaN	NaN	NaN	2.8822464e-07	1e-07	276
0	0	-0.27197188	0	-0.70710677	0.70710677	0	0.707107	-0.707107	0	-0.7071071	-0.7071071	0	0	0	0	-0.10734215	-0.018844035	-2.9597928e-05	NaN	NaN	NaN	2.960145e-07	1e-07	276
0	0	-0.27197188	0	-0.7071068	0.7071068	0	0.70710707	-0.70710707	0	-0.7071071	-0.7071071	0	0	0	0	-0.10806127	-0.019161195	-0.0001272863	NaN	NaN	NaN	3.0380434e-07	1e-07	276
0	0	-0.27197188	0	-0.7071068	0.7071068	0	0.70710707	-0.707107	0	-0.7071071	-0.7071071	0	0	0	0	-0.10894965	-0.019559253	-0.00022712095	NaN	NaN	NaN	3.115942e-07	1e-07	276
0	0	-0.27197188	0	-0.7071068	0.70710677	0	0.70710707	-0.707107	0	-0.7071071	-0.7071071	0	0	0	0	-0.11001189	-0.02004657	-0.0003298858	NaN	NaN	NaN	3.1938407e-07	1e-07	276
0	0	-0.27197188	0	-0.70710677	0.70710677	0	0.70710707	-0.70710707	0	-0.7071071	-0.7071071	0	0	0	0	-0.11125175	-0.020631878	-0.00043641924	NaN	NaN	NaN	3.2717392e-07	1e-07	276
0	0	-0.27197188	0	-0.70710677	0.7071068	0	0.707107	-0.707107	0	-0.7071071	-0.7071071	0	0	0	0	-0.11267196	-0.021324407	-0.000547611	NaN	NaN	NaN	3.3496377e-07	1e-07	276
0	0	-0.2719719	0	-0.7071068	0.70710677	0	0.70710707	-0.70710707	0	-0.7071071	-0.7071071	0	0	0	0	-0.11427405	-0.022133961	-0.0006644131	NaN	NaN	NaN	3.4275362e-07	1e-07	276
0	0	-0.27197188	0	-0.70710677	0.7071068	0	0.707107	-0.70710707	0	-0.7071071	-0.7071071	0	0	0	0	-0.11605746	-0.023071075	-0.0007878396	NaN	NaN	NaN	3.5054347e-07	1e-07	276
0	0	-0.2719719	0	-0.70710677	0.7071068	0	0.70710707	-0.70710707	0	-0.7071071	-0.7071071	0	0	0	0	-0.118019626	-0.024147086	-0.0009189776	NaN	NaN	NaN	3.5833332e-07	1e-07	276
0	0	-0.27197188	0	-0.7071068	0.70710677	0	0.707107	-0.70710707	0	-0.7071071	-0.7071071	0	0	0	0	-0.120154485	-0.025374305	-0.0010589845	NaN	NaN	NaN	3.6612317e-07	1e-07	276
0	0	-0.2719719	0	-0.70710677	0.70710677	0	0.707107	-0.70710707	0	-0.7071071	-0.7071071	0	0	0	0	-0.122451805	-0.026766067	-0.0012090866	NaN	NaN	NaN	3.7391305e-07	1e-07	276
0	0	-0.27197188	0	-0.70710677	0.7071068	0	0.707107	-0.707107	0	-0.7071071	-0.7071071	0	0	0	0	-0.12489538	-0.028336879	-0.0013705599	NaN	NaN	NaN	3.817029e-07	1e-07	276
0	0	-0.2719719	0	-0.7071068	0.70710677	0	0.70710707	-0.707107	0	-0.7071071	-0.7071071	0	0	0	0	-0.12746125	-0.030102376	-0.0015447099	NaN	NaN	NaN	3.8949275e-07	1e-07	276
0	0	-0.27197188	0	-0.70710677	0.7071068	0	0.70710707	-0.707107	0	-0.7071071	-0.7071071	0	0	0	0	-0.13011478	-0.032079235	-0.0017328273	NaN	NaN	NaN	3.972826e-07	1e-07	276
0	0	-0.2719719	0	-0.7071068	0.70710677	0	0.70710707	-0.70710707	0	-0.7071071	-0.7071071	0	0	0	0	-0.13280734	-0.034284715	-0.0019361323	NaN	NaN	NaN	4.0507246e-07	1e-07	276
0	0	-0.2719719	0	-0.70710677	0.70710677	0	0.70710707	-0.707107	0	-0.7071071	-0.7071071	0	0	0	0	-0.13547125	-0.03673572	-0.0021556607	NaN	NaN	NaN	4.128623e-07	1e-07	276
0	0	-0.27197188	0	-0.7071068	0.70710677	0	0.70710707	-0.70710707	0	-0.7071071	-0.7071071	0	0	0	0	-0.13801362	-0.039446753	-0.0023921407	NaN	NaN	NaN	4.2065219e-07	1e-07	276
0	0	-0.27197188	0	-0.70710677	0.70710677	0	0.707107	-0.70710707	0	-0.7071071	-0.7071071	0	0	0	0	-0.14030807	-0.042425998	-0.0026457822	NaN	NaN	NaN	4.2844204e-07	1e-07	276
0	0	-0.2719719	0	-0.70710677	0.70710677	0	0.70710707	-0.70710707	0	-0.7071071	-0.7071071	0	0	0	0	-0.14218368	-0.045667663	-0.002916039	NaN	NaN	NaN	4.362319e-07	1e-07	276
0	0	-0.2719719	0	-0.7071068	0.70710677	0	0.70710707	-0.70710707	0	-0.7071071	-0.7071071	0	0	0	0	-0.14341296	-0.04913806	-0.0032013059	NaN	NaN	NaN	4.4402174e-07	1e-07	276
0	0	-0.27197188	0	-0.7071068	0.70710677	0	0.70710707	-0.70710707	0	-0.7071071	-0.7071071	0	0	0	0	-0.14370292	-0.052749906	-0.0034986231	NaN	NaN	NaN	4.518116e-07	1e-07	276
0	0	-0.27197188	0	-0.70710677	0.7071068	0	0.70710707	-0.70710707	0	-0.7071071	-0.7071071	0	0	0	0	-0.1426984	-0.05632583	-0.0038034054	NaN	NaN	NaN	4.5960144e-07	1e-07	276
0	0	-0.27197188	0	-0.70710677	0.7071068	0	0.70710707	-0.70710707	0	-0.7071071	-0.7071071	0	0	0	0	-0.14001362	-0.059552576	-0.0041093817	NaN	NaN	NaN	4.6739132e-07	1e-07	276
0	0	-0.27197188	0	-0.7071068	0.70710677	0	0.70710707	-0.70710707	0	-0.7071071	-0.7071071	0	0	0	0	-0.13531636	-0.06196014	-0.0044088163	NaN	NaN	NaN	4.7518117e-07	1e-07	276
0	0	-0.2719719	0	-0.70710677	0.70710677	0	0.70710707	-0.70710707	0	-0.7071071	-0.7071071	0	0	0	0	-0.12844767	-0.0629798	-0.0046930644	NaN	NaN	NaN	4.82971e-07	1e-07	276
0	0	-0.2719719	0	-0.7071068	0.7071068	0	0.70710707	-0.707107	0	-0.7071071	-0.7071071	0	0	0	0	-0.119501725	-0.062114246	-0.0049533676	NaN	NaN	NaN	4.907609e-07	1e-07	276
0	0	-0.27197188	0	-0.70710677	0.70710677	0	0.707107	-0.70710707	0	-0.7071071	-0.7071071	0	0	0	0	-0.108781934	-0.059144944	-0.005181722	NaN	NaN	NaN	4.985507e-07	1e-07	276
0	0	-0.27197188	0	-0.70710677	0.70710677	0	0.70710707	-0.707107	0	-0.7071071	-0.7071071	0	0	0	0	-0.09666312	-0.05423673	-0.005371462	NaN	NaN	NaN	5.063406e-07	1e-07	276
0	0	-0.2719719	0	-0.70710677	0.70710677	0	0.707107	-0.70710707	0	-0.7071071	-0.7071071	0	0	0	0	-0.083491415	-0.04789163	-0.0055175945	NaN	NaN	NaN	5.141304e-07	1e-07	276
0	0	-0.27197188	0	-0.7071068	0.70710677	0	0.70710707	-0.707107	0	-0.7071071	-0.7071071	0	0	0	0	-0.069589995	-0.04081174	-0.0056168833	NaN	NaN	NaN	5.219203e-07	1e-07	276
0	0	-0.27197188	0	-0.7071068	0.7071068	0	0.70710707	-0.70710707	0	-0.7071071	-0.7071071	0	0	0	0	-0.055319916	-0.0337286	-0.005667931	NaN	NaN	NaN	5.297101e-07	1e-07	276
0	0	-0.2719719	0	-0.70710677	0.70710677	0	0.70710707	-0.70710707	0	-0.7071071	-0.7071071	0	0	0	0	-0.041103803	-0.02725308	-0.0056711864	NaN	NaN	NaN	5.375e-07	1e-07	276
0	0	-0.27197188	0	-0.70710677	0.7071068	0	0.707107	-0.70710707	0	-0.7071071	-0.7071071	0	0	0	0	-0.02738169	-0.021778144	-0.0056289216	NaN	NaN	NaN	5.452899e-07	1e-07	276
0	0	-0.27197188	0	-0.70710677	0.7071068	0	0.70710707	-0.70710707	0	-0.7071071	-0.7071071	0	0	0	0	-0.014539545	-0.017463248	-0.005545037	NaN	NaN	NaN	5.530797e-07	1e-07	276
0	0	-0.27197188	0	-0.70710677	0.7071068	0	0.707107	-0.70710707	0	-0.7071071	-0.7071071	0	0	0	0	-0.0028526462	-0.014290143	-0.0054246946	NaN	NaN	NaN	5.608696e-07	1e-07	276
0	0	-0.27197188	0	-0.70710677	0.70710677	0	0.70710707	-0.707107	0	-0.7071071	-0.7071071	0	0	0	0	0.007524216	-0.012139441	-0.005273828	NaN	NaN	NaN	5.686594e-07	1e-07	276
0	0	-0.27197188	0	-0.7071068	0.7071068	0	0.707107	-0.70710707	0	-0.7071071	-0.7071071	0	0	0	0	0.016537845	-0.010849154	-0.005098647	NaN	NaN	NaN	5.764493e-07	1e-07	276
0	0	-0.27197188	0	-0.70710677	0.70710677	0	0.70710707	-0.70710707	0	-0.7071071	-0.7071071	0	0	0	0	0.02420831	-0.010249956	-0.0049052136	NaN	NaN	NaN	5.842391e-07	1e-07	276
0	0	-0.2719719	0	-0.70710677	0.70710677	0	0.707107	-0.707107	0	-0.7071071	-0.7071071	0	0	0	0	0.030599995	-0.010185883	-0.0046991436	NaN	NaN	NaN	5.92029e-07	1e-07	276
0	0	-0.2719719	0	-0.70710677	0.7071068	0	0.70710707	-0.70710707	0	-0.7071071	-0.7071071	0	0	0	0	0.03580202	-0.010520487	-0.0044854213	NaN	NaN	NaN	5.9981886e-07	1e-07	276
0	0	-0.27197188	0	-0.70710677	0.7071068	0	0.7071071	-0.70710707	0	-0.7071071	-0.7071071	0	0	0	0	0.039914817	-0.011138289	-0.0042683273	NaN	NaN	NaN	6.076087e-07	1e-07	276
0	0	-0.27197188	0	-0.70710677	0.7071068	0	0.70710707	-0.70710707	0	-0.7071071	-0.7071071	0	0	0	0	0.043041687	-0.011943709	-0.0040514306	NaN	NaN	NaN	6.1539856e-07	1e-07	276
0	0	-0.2719719	0	-0.70710677	0.7071068	0	0.70710707	-0.70710707	0	-0.7071071	-0.7071071	0	0	0	0	0.04528421	-0.012859209	-0.0038376425	NaN	NaN	NaN	6.231884e-07	1e-07	276
0	0	-0.27197188	0	-0.70710677	0.70710677	0	0.70710707	-0.70710707	0	-0.7071071	-0.7071071	0	0	0	0	0.04673946	-0.013823202	-0.0036292546	NaN	NaN	NaN	6.3097826e-07	1e-07	276
0	0	-0.27197188	0	-0.70710677	0.7071068	0	0.70710707	-0.70710707	0	-0.7071071	-0.7071071	0	0	0	0	0.047498554	-0.014788097	-0.0034280485	NaN	NaN	NaN	6.3876814e-07	1e-07	276
0	0	-0.2719719	0	-0.70710677	0.7071068	0	0.70710707	-0.70710707	0	-0.7071071	-0.7071071	0	0	0	0	0.047645915	-0.015718486	-0.0032353501	NaN	NaN	NaN	6.4655796e-07	1e-07	276
0	0	-0.27197188	0	-0.7071068	0.7071068	0	0.707107	-0.707107	0	-0.7071071	-0.7071071	0	0	0	0	0.047258925	-0.016589534	-0.0030521145	NaN	NaN	NaN	6.5434784e-07	1e-07	276
0	0	-0.27197188	0	-0.70710677	0.70710677	0	0.70710707	-0.707107	0	-0.7071071	-0.7071071	0	0	0	0	0.046408076	-0.017385408	-0.0028789833	NaN	NaN	NaN	6.6213767e-07	1e-07	276
0	0	-0.27197188	0	-0.70710677	0.7071068	0	0.707107	-0.70710707	0	-0.7071071	-0.7071071	0	0	0	0	0.045156643	-0.01809789	-0.0027163478	NaN	NaN	NaN	6.6992754e-07	1e-07	276
0	0	-0.27197188	0	-0.70710677	0.7071068	0	0.70710707	-0.70710707	0	-0.7071071	-0.7071071	0	0	0	0	0.043560963	-0.01872501	-0.0025644007	NaN	NaN	NaN	6.7771737e-07	1e-07	276
0	0	-0.27197188	0	-0.70710677	0.70710677	0	0.70710707	-0.70710707	0	-0.7071071	-0.7071071	0	0	0	0	0.04167085	-0.019269848	-0.0024231903	NaN	NaN	NaN	6.8550725e-07	1e-07	276
0	0	-0.27197188	0	-0.7071068	0.70710677	0	0.70710707	-0.707107	0	-0.7071071	-0.7071071	0	0	0	0	0.039529655	-0.01973943	-0.0022926263	NaN	NaN	NaN	6.932971e-07	1e-07	276
0	0	-0.2719719	0	-0.70710677	0.7071068	0	0.7071071	-0.707107	0	-0.7071071	-0.7071071	0	0	0	0	0.037174746	-0.020143775	-0.002172554	NaN	NaN	NaN	7.0108695e-07	1e-07	276
0	0	-0.27197188	0	-0.70710677	0.70710677	0	0.70710707	-0.707107	0	-0.7071071	-0.7071071	0	0	0	0	0.034637935	-0.02049506	-0.0020627514	NaN	NaN	NaN	7.088768e-07	1e-07	276
0	0	-0.27197188	0	-0.7071068	0.70710677	0	0.70710707	-0.707107	0	-0.7071071	-0.7071071	0	0	0	0	0.03194587	-0.020806996	-0.0019629733	NaN	NaN	NaN	7.1666665e-07	1e-07	276
0	0	-0.2719719	0	-0.70710677	0.7071068	0	0.70710707	-0.707107	0	-0.7071071	-0.7071071	0	0	0	0	0.029120551	-0.021094278	-0.0018729483	NaN	NaN	NaN	7.244565e-07	1e-07	276
0	0	-0.27197188	0	-0.7071068	0.70710677	0	0.707107	-0.70710707	0	-0.7071071	-0.7071071	0	0	0	0	0.026179696	-0.021372234	-0.0017924166	NaN	NaN	NaN	7.3224635e-07	1e-07	276
0	0	-0.27197188	0	-0.70710677	0.70710677	0	0.70710707	-0.70710707	0	-0.7071071	-0.7071071	0	0	0	0	0.023137283	-0.021656588	-0.0017211263	NaN	NaN	NaN	7.400362e-07	1e-07	276
0	0	-0.27197188	0	-0.7071068	0.70710677	0	0.7071071	-0.70710707	0	-0.7071071	-0.7071071	0	0	0	0	0.02000369	-0.021963313	-0.0016588632	NaN	NaN	NaN	7.478261e-07	1e-07	276
0	0	-0.2719719	0	-0.70710677	0.70710677	0	0.70710707	-0.707107	0	-0.7071071	-0.7071071	0	0	0	0	0.016786544	-0.0223086	-0.0016054438	NaN	NaN	NaN	7.5561593e-07	1e-07	276
0	0	-0.27197188	0	-0.7071068	0.7071068	0	0.70710707	-0.70710707	0	-0.7071071	-0.7071071	0	0	0	0	0.013490373	-0.022708932	-0.0015607387	NaN	NaN	NaN	7.634058e-07	1e-07	276
0	0	-0.2719719	0	-0.70710677	0.7071068	0	0.707107	-0.70710707	0	-0.7071071	-0.7071071	0	0	0	0	0.010117789	-0.023181189	-0.0015246628	NaN	NaN	NaN	7.7119563e-07	1e-07	276
0	0	-0.27197188	0	-0.70710677	0.70710677	0	0.70710707	-0.70710707	0	-0.7071071	-0.7071071	0	0	0	0	0.006668819	-0.02374289	-0.0014972015	NaN	NaN	NaN	7.789855e-07	1e-07	276
0	0	-0.27197188	0	-0.7071068	0.70710677	0	0.70710707	-0.70710707	0	-0.7071071	-0.7071071	0	0	0	0	0.003142076	-0.024412388	-0.0014784037	NaN	NaN	NaN	7.867754e-07	1e-07	276
0	0	-0.27197188	0	-0.7071068	0.70710677	0	0.70710707	-0.70710707	0	-0.7071071	-0.7071071	0	0	0	0	-0.0004655578	-0.025209248	-0.0014684038	NaN	NaN	NaN	7.945652e-07	1e-07	276
0	0	-0.27197188	0	-0.7071068	0.7071068	0	0.707107	-0.70710707	0	-0.7071071	-0.7071071	0	0	0	0	-0.0041584293	-0.026154565	-0.0014674035	NaN	NaN	NaN	8.023551e-07	1e-07	276
0	0	-0.27197188	0	-0.70710677	0.7071068	0	0.70710707	-0.70710707	0	-0.7071071	-0.7071071	0	0	0	0	-0.007941635	-0.027271427	-0.001475707	NaN	NaN	NaN	8.101449e-07	1e-07	276
0	0	-0.27197188	0	-0.70710677	0.70710677	0	0.707107	-0.70710707	0	-0.7071071	-0.7071071	0	0	0	0	-0.011820981	-0.028585337	-0.0014937026	NaN	NaN	NaN	8.179348e-07	1e-07	276
0	0	-0.27197188	0	-0.7071068	0.7071068	0	0.70710707	-0.70710707	0	-0.7071071	-0.7071071	0	0	0	0	-0.015802324	-0.030124785	-0.0015218838	NaN	NaN	NaN	8.257246e-07	1e-07	276
0	0	-0.2719719	0	-0.70710677	0.70710677	0	0.707107	-0.70710707	0	-0.7071071	-0.7071071	0	0	0	0	-0.019890865	-0.03192175	-0.0015608405	NaN	NaN	NaN	8.335145e-07	1e-07	276
0	0	-0.2719719	0	-0.70710677	0.70710677	0	0.707107	-0.707107	0	-0.7071071	-0.7071071	0	0	0	0	-0.024090637	-0.034012347	-0.0016112764	NaN	NaN	NaN	8.4130437e-07	1e-07	276
0	0	-0.27197188	0	-0.70710677	0.7071068	0	0.70710707	-0.707107	0	-0.7071071	-0.7071071	0	0	0	0	-0.028403236	-0.036437348	-0.0016739788	NaN	NaN	NaN	8.490942e-07	1e-07	276
0	0	-0.2719719	0	-0.70710677	0.70710677	0	0.70710707	-0.70710707	0	-0.7071071	-0.7071071	0	0	0	0	-0.032826826	-0.039242785	-0.0017498389	NaN	NaN	NaN	8.5688407e-07	1e-07	276
0	0	-0.2719719	0	-0.70710677	0.70710677	0	0.70710707	-0.70710707	0	-0.7071071	-0.7071071	0	0	0	0	-0.037354063	-0.042480305	-0.0018398014	NaN	NaN	NaN	8.646739e-07	1e-07	276
0	0	-0.2719719	0	-0.70710677	0.70710677	0	0.70710707	-0.707107	0	-0.7071071	-0.7071071	0	0	0	0	-0.041970067	-0.046207305	-0.0019448657	NaN	NaN	NaN	8.724638e-07	1e-07	276
0	0	-0.27197188	0	-0.7071068	0.70710677	0	0.70710707	-0.707107	0	-0.7071071	-0.7071071	0	0	0	0	-0.04664913	-0.050486572	-0.0020659955	NaN	NaN	NaN	8.8025365e-07	1e-07	276
0	0	-0.27197188	0	-0.70710677	0.70710677	0	0.70710707	-0.70710707	0	-0.7071071	-0.7071071	0	0	0	0	-0.051351488	-0.055385012	-0.00220409	NaN	NaN	NaN	8.880435e-07	1e-07	276
0	0	-0.27197188	0	-0.7071068	0.70710677	0	0.70710707	-0.707107	0	-0.7071071	-0.7071071	0	0	0	0	-0.056018375	-0.060971018	-0.0023598438	NaN	NaN	NaN	8.9583335e-07	1e-07	276
0	0	-0.27197188	0	-0.70710677	0.70710677	0	0.70710707	-0.70710707	0	-0.7071071	-0.7071071	0	0	0	0	-0.060567256	-0.067309655	-0.002533654	NaN	NaN	NaN	9.036232e-07	1e-07	276
0	0	-0.27197188	0	-0.7071068	0.7071068	0	0.707107	-0.707107	0	-0.7071071	-0.7071071	0	0	0	0	-0.06488677	-0.074454814	-0.0027254382	NaN	NaN	NaN	9.1141305e-07	1e-07	276
0	0	-0.27197188	0	-0.70710677	0.70710677	0	0.70710707	-0.707107	0	-0.7071071	-0.7071071	0	0	0	0	-0.0688335	-0.08243722	-0.002934514	NaN	NaN	NaN	9.192029e-07	1e-07	276
0	0	-0.27197188	0	-0.7071068	0.70710677	0	0.707107	-0.70710707	0	-0.7071071	-0.7071071	0	0	0	0	-0.07223302	-0.09124831	-0.0031593936	NaN	NaN	NaN	9.2699275e-07	1e-07	276
0	0	-0.2719719	0	-0.7071068	0.7071068	0	0.707107	-0.70710707	0	-0.7071071	-0.7071071	0	0	0	0	-0.07488923	-0.10082127	-0.003397721	NaN	NaN	NaN	9.3478263e-07	1e-07	276
0	0	-0.2719719	0	-0.70710677	0.7071068	0	0.707107	-0.70710707	0	-0.7071071	-0.7071071	0	0	0	0	-0.07660515	-0.111014776	-0.0036462247	NaN	NaN	NaN	9.4257246e-07	1e-07	276
0	0	-0.27197188	0	-0.7071068	0.7071068	0	0.70710707	-0.70710707	0	-0.7071071	-0.7071071	0	0	0	0	-0.077215955	-0.12160821	-0.003900847	NaN	NaN	NaN	9.5036233e-07	1e-07	276
0	0	-0.2719719	0	-0.7071068	0.7071068	0	0.707107	-0.707107	0	-0.7071071	-0.7071071	0	0	0	0	-0.07662494	-0.13231798	-0.0041569523	NaN	NaN	NaN	9.581522e-07	1e-07	276
0	0	-0.2719719	0	-0.7071068	0.7071068	0	0.70710707	-0.70710707	0	-0.7071071	-0.7071071	0	0	0	0	-0.07482853	-0.14283569	-0.0044097137	NaN	NaN	NaN	9.65942e-07	1e-07	276
0	0	-0.2719719	0	-0.70710677	0.70710677	0	0.70710707	-0.707107	0	-0.7071071	-0.7071071	0	0	0	0	-0.07191624	-0.15287647	-0.004654466	NaN	NaN	NaN	9.737319e-07	1e-07	276
0	0	-0.27197188	0	-0.70710677	0.70710677	0	0.707107	-0.707107	0	-0.7071071	-0.7071071	0	0	0	0	-0.06804563	-0.16221692	-0.0048870826	NaN	NaN	NaN	9.815218e-07	1e-07	276
0	0	-0.2719719	0	-0.7071068	0.70710677	0	0.70710707	-0.70710707	0	-0.7071071	-0.7071071	0	0	0	0	-0.06340634	-0.1707117	-0.0051041893	NaN	NaN	NaN	9.893116e-07	1e-07	276
0	0	-0.27197188	0	-0.70710677	0.7071068	0	0.707107	-0.70710707	0	-0.7071071	-0.7071071	0	0	0	0	-0.058186874	-0.17828831	-0.0053032907	NaN	NaN	NaN	9.971014e-07	1e-07	276
0	0	-0.27197188	0	-0.70710677	0.7071068	0	0.70710707	-0.70710707	0	-0.7071071	-0.7071071	0	0	0	0	-0.0525539	-0.184931	-0.005482722	NaN	NaN	NaN	1.0048913e-06	1e-07	276
0	0	-0.27197188	0	-0.70710677	0.7071068	0	0.707107	-0.70710707	0	-0.7071071	-0.7071071	0	0	0	0	-0.04664295	-0.19066133	-0.005641571	NaN	NaN	NaN	1.0126812e-06	1e-07	276
0	0	-0.27197188	0	-0.70710677	0.70710677	0	0.707107	-0.70710707	0	-0.7071071	-0.7071071	0	0	0	0	-0.04055715	-0.19552217	-0.0057794936	NaN	NaN	NaN	1.020471e-06	1e-07	276
0	0	-0.27197188	0	-0.70710677	0.70710677	0	0.70710707	-0.707107	0	-0.7071071	-0.7071071	0	0	0	0	-0.03437067	-0.19956513	-0.0058965585	NaN	NaN	NaN	1.0282608e-06	1e-07	276
0	0	-0.27197188	0	-0.70710677	0.70710677	0	0.70710707	-0.70710707	0	-0.7071071	-0.7071071	0	0	0	0	-0.02813387	-0.20284276	-0.00599309	NaN	NaN	NaN	1.0360508e-06	1e-07	276
0	0	-0.27197188	0	-0.70710677	0.7071068	0	0.707107	-0.707107	0	-0.7071071	-0.7071071	0	0	0	0	-0.021877987	-0.20540294	-0.006069541	NaN	NaN	NaN	1.0438406e-06	1e-07	276
0	0	-0.27197188	0	-0.7071068	0.70710677	0	0.707107	-0.70710707	0	-0.7071071	-0.7071071	0	0	0	0	-0.0156204505	-0.20728631	-0.006126375	NaN	NaN	NaN	1.0516304e-06	1e-07	276
0	0	-0.27197188	0	-0.70710677	0.7071068	0	0.70710707	-0.70710707	0	-0.7071071	-0.7071071	0	0	0	0	-0.009368289	-0.20852414	-0.0061640115	NaN	NaN	NaN	1.0594202e-06	1e-07	276
0	0	-0.2719719	0	-0.70710677	0.7071068	0	0.707107	-0.70710707	0	-0.7071071	-0.7071071	0	0	0	0	-0.0031220024	-0.20913772	-0.006182749	NaN	NaN	NaN	1.0672102e-06	1e-07	276
0	0	-0.27197188	0	-0.70710677	0.70710677	0	0.707107	-0.70710707	0	-0.7071071	-0.7071071	0	0	0	0	0.0031219919	-0.20913772	-0.00618275	NaN	NaN	NaN	1.075e-06	1e-07	276
0	0	-0.2719719	0	-0.7071068	0.7071068	0	0.707107	-0.707107	0	-0.7071071	-0.7071071	0	0	0	0	0.00936829	-0.20852417	-0.0061640115	NaN	NaN	NaN	1.0827898e-06	1e-07	276
0	0	-0.27197188	0	-0.70710677	0.70710677	0	0.707107	-0.70710707	0	-0.7071071	-0.7071071	0	0	0	0	0.01562043	-0.2072863	-0.006126377	NaN	NaN	NaN	1.0905798e-06	1e-07	276
0	0	-0.2719719	0	-0.7071068	0.7071068	0	0.70710707	-0.70710707	0	-0.7071071	-0.7071071	0	0	0	0	0.021877991	-0.20540297	-0.006069539	NaN	NaN	NaN	1.0983696e-06	1e-07	276
0	0	-0.2719719	0	-0.70710677	0.70710677	0	0.707107	-0.707107	0	-0.7071071	-0.7071071	0	0	0	0	0.028133858	-0.20284274	-0.0059930882	NaN	NaN	NaN	1.1061594e-06	1e-07	276
0	0	-0.27197188	0	-0.70710677	0.7071068	0	0.707107	-0.707107	0	-0.7071071	-0.7071071	0	0	0	0	0.03437067	-0.19956519	-0.0058965553	NaN	NaN	NaN	1.1139492e-06	1e-07	276
0	0	-0.27197188	0	-0.70710677	0.70710677	0	0.70710707	-0.707107	0	-0.7071071	-0.7071071	0	0	0	0	0.04055714	-0.19552214	-0.0057794917	NaN	NaN	NaN	1.1217392e-06	1e-07	276
0	0	-0.27197188	0	-0.70710677	0.70710677	0	0.70710707	-0.70710707	0	-0.7071071	-0.7071071	0	0	0	0	0.04664294	-0.19066136	-0.00564157	NaN	NaN	NaN	1.129529e-06	1e-07	276
0	0	-0.2719719	0	-0.7071068	0.70710677	0	0.70710707	-0.70710707	0	-0.7071071	-0.7071071	0	0	0	0	0.05255392	-0.184931	-0.0054827235	NaN	NaN	NaN	1.1373188e-06	1e-07	276
0	0	-0.2719719	0	-0.70710677	0.7071068	0	0.70710707	-0.70710707	0	-0.7071071	-0.7071071	0	0	0	0	0.058186844	-0.17828834	-0.005303287	NaN	NaN	NaN	1.1451087e-06	1e-07	276
0	0	-0.27197188	0	-0.7071068	0.70710677	0	0.70710707	-0.70710707	0	-0.7071071	-0.7071071	0	0	0	0	0.06340631	-0.17071168	-0.0051041916	NaN	NaN	NaN	1.1528986e-06	1e-07	276
0	0	-0.2719719	0	-0.70710677	0.7071068	0	0.707107	-0.70710707	0	-0.7071071	-0.7071071	0	0	0	0	0.06804566	-0.16221695	-0.004887081	NaN	NaN	NaN	1.1606884e-06	1e-07	276
0	0	-0.27197188	0	-0.70710677	0.70710677	0	0.70710707	-0.70710707	0	-0.7071071	-0.7071071	0	0	0	0	0.07191623	-0.15287645	-0.004654466	NaN	NaN	NaN	1.1684782e-06	1e-07	276
0	0	-0.2719719	0	-0.70710677	0.70710677	0	0.70710707	-0.70710707	0	-0.7071071	-0.7071071	0	0	0	0	0.07482855	-0.1428357	-0.0044097123	NaN	NaN	NaN	1.1762681e-06	1e-07	276
0	0	-0.27197188	0	-0.70710677	0.7071068	0	0.707107	-0.70710707	0	-0.7071071	-0.7071071	0	0	0	0	0.07662494	-0.13231798	-0.0041569546	NaN	NaN	NaN	1.184058e-06	1e-07	276
0	0	-0.2719719	0	-0.70710677	0.7071068	0	0.707107	-0.707107	0	-0.7071071	-0.7071071	0	0	0	0	0.07721594	-0.12160824	-0.0039008465	NaN	NaN	NaN	1.1918478e-06	1e-07	276
0	0	-0.27197188	0	-0.7071068	0.70710677	0	0.70710707	-0.70710707	0	-0.7071071	-0.7071071	0	0	0	0	0.07660517	-0.111014776	-0.0036462299	NaN	NaN	NaN	1.1996377e-06	1e-07	276
0	0	-0.27197188	0	-0.7071068	0.70710677	0	0.70710707	-0.70710707	0	-0.7071071	-0.7071071	0	0	0	0	0.07488918	-0.100821294	-0.0033977234	NaN	NaN	NaN	1.2074275e-06	1e-07	276
0	0	-0.2719719	0	-0.70710677	0.70710677	0	0.70710707	-0.707107	0	-0.7071071	-0.7071071	0	0	0	0	0.07223302	-0.09124831	-0.0031593973	NaN	NaN	NaN	1.2152174e-06	1e-07	276
0	0	-0.27197188	0	-0.70710677	0.70710677	0	0.70710707	-0.707107	0	-0.7071071	-0.7071071	0	0	0	0	0.06883352	-0.08243724	-0.0029345148	NaN	NaN	NaN	1.2230073e-06	1e-07	276
0	0	-0.2719719	0	-0.70710677	0.7071068	0	0.70710707	-0.70710707	0	-0.7071071	-0.7071071	0	0	0	0	0.064886756	-0.074454814	-0.0027254436	NaN	NaN	NaN	1.2307971e-06	1e-07	276
0	0	-0.2719719	0	-0.70710677	0.7071068	0	0.70710707	-0.70710707	0	-0.7071071	-0.7071071	0	0	0	0	0.060567256	-0.06730966	-0.002533654	NaN	NaN	NaN	1.238587e-06	1e-07	276
0	0	-0.2719719	0	-0.70710677	0.7071068	0	0.707107	-0.70710707	0	-0.7071071	-0.7071071	0	0	0	0	0.056018386	-0.060971014	-0.00235985	NaN	NaN	NaN	1.2463768e-06	1e-07	276
0	0	-0.2719719	0	-0.7071068	0.70710677	0	0.707107	-0.70710707	0	-0.7071071	-0.7071071	0	0	0	0	0.051351514	-0.055385012	-0.0022040915	NaN	NaN	NaN	1.2541667e-06	1e-07	276
0	0	-0.27197188	0	-0.7071068	0.70710677	0	0.707107	-0.707107	0	-0.7071071	-0.7071071	0	0	0	0	0.046649177	-0.050486572	-0.0020659997	NaN	NaN	NaN	1.2619565e-06	1e-07	276
0	0	-0.2719719	0	-0.70710677	0.7071068	0	0.70710707	-0.707107	0	-0.7071071	-0.7071071	0	0	0	0	0.041970007	-0.046207305	-0.0019448637	NaN	NaN	NaN	1.2697463e-06	1e-07	276
0	0	-0.27197188	0	-0.70710677	0.7071068	0	0.70710707	-0.707107	0	-0.7071071	-0.7071071	0	0	0	0	0.03735409	-0.04248031	-0.0018398059	NaN	NaN	NaN	1.2775363e-06	1e-07	276
0	0	-0.2719719	0	-0.70710677	0.70710677	0	0.707107	-0.707107	0	-0.7071071	-0.7071071	0	0	0	0	0.03282685	-0.039242793	-0.0017498384	NaN	NaN	NaN	1.2853261e-06	1e-07	276
0	0	-0.27197188	0	-0.7071068	0.7071068	0	0.70710707	-0.70710707	0	-0.7071071	-0.7071071	0	0	0	0	0.02840325	-0.03643735	-0.0016739819	NaN	NaN	NaN	1.2931159e-06	1e-07	276
0	0	-0.27197188	0	-0.70710677	0.70710677	0	0.70710707	-0.70710707	0	-0.7071071	-0.7071071	0	0	0	0	0.024090623	-0.034012347	-0.0016112772	NaN	NaN	NaN	1.3009058e-06	1e-07	276
0	0	-0.27197188	0	-0.7071068	0.70710677	0	0.707107	-0.70710707	0	-0.7071071	-0.7071071	0	0	0	0	0.019890888	-0.03192175	-0.0015608472	NaN	NaN	NaN	1.3086957e-06	1e-07	276
0	0	-0.27197188	0	-0.70710677	0.70710677	0	0.70710707	-0.707107	0	-0.7071071	-0.7071071	0	0	0	0	0.015802313	-0.030124782	-0.001521887	NaN	NaN	NaN	1.3164855e-06	1e-07	276
0	0	-0.27197188	0	-0.70710677	0.7071068	0	0.70710707	-0.707107	0	-0.7071071	-0.7071071	0	0	0	0	0.011821024	-0.028585339	-0.0014937053	NaN	NaN	NaN	1.3242753e-06	1e-07	276
0	0	-0.2719719	0	-0.7071068	0.7071068	0	0.707107	-0.70710707	0	-0.7071071	-0.7071071	0	0	0	0	0.007941641	-0.027271427	-0.0014757069	NaN	NaN	NaN	1.3320653e-06	1e-07	276
0	0	-0.27197188	0	-0.7071068	0.7071068	0	0.70710707	-0.70710707	0	-0.7071071	-0.7071071	0	0	0	0	0.0041583977	-0.026154568	-0.0014674058	NaN	NaN	NaN	1.3398551e-06	1e-07	276
0	0	-0.2719719	0	-0.7071068	0.70710677	0	0.70710707	-0.707107	0	-0.7071071	-0.7071071	0	0	0	0	0.00046557654	-0.02520925	-0.0014684038	NaN	NaN	NaN	1.3476449e-06	1e-07	276
0	0	-0.2719719	0	-0.7071068	0.7071068	0	0.70710707	-0.70710707	0	-0.7071071	-0.7071071	0	0	0	0	-0.0031420768	-0.02441239	-0.0014784037	NaN	NaN	NaN	1.3554347e-06	1e-07	276